LAMMPS protein data file

         483  atoms
         640  bonds
           0  angles
           0  dihedrals
           0  impropers

           5  atom types
           5  bond types
           0  angle types
           0  dihedral types
           0  improper types

-18.88099957	44.27500153	xlo xhi
-15.21500015	81.18199921	ylo yhi
-16.65299988	91.84300232	zlo zhi

Masses

           1	27.0
           2	14.0
           3	28.0
           4	60.0
           5	2.0

Atoms

           1	1	1	1	0.0	-6.89099979	25.19300079	24.4279995
           2	1	1	3	0.0	-5.829	26.99900055	25.56100082
           3	1	1	4	0.0	-7.92299986	25.62599945	23.32299995
           4	1	2	1	0.0	-7.8579998	27.15399933	27.55699921
           5	1	2	3	0.0	-6.03999996	28.4829998	28.42300034
           6	1	2	4	0.0	-8.88099957	26.72599983	28.59199905
           7	1	3	1	0.0	-4.5539999	26.20100021	29.19400024
           8	1	3	3	0.0	-2.4920001	27.2840004	28.57500076
           9	1	3	4	0.0	-4.21999979	24.81800079	29.70700073
          10	1	4	1	0.0	-2.87400007	26.66300011	25.79700089
          11	1	4	3	0.0	-1.73199999	28.74900055	25.51799965
          12	1	4	4	0.0	-3.273	25.95499992	24.51000023
          13	1	5	1	0.0	-4.11800003	30.22599983	25.2840004
          14	1	5	3	0.0	-2.68600011	31.9090004	26.23999977
          15	1	5	4	0.0	-5.56899977	30.71999931	25.01099968
          16	1	6	1	0.0	-2.93300009	30.93300056	28.84600067
          17	1	6	3	0.0	-0.84899998	32.11999893	29.05999947
          18	1	6	4	0.0	-3.2809999	30.06999969	30.05800056
          19	1	7	1	0.0	0.67000002	30.10199928	27.89999962
          20	1	7	3	0.0	2.18300009	31.70400047	26.95700073
          21	1	7	4	0.0	1.19099998	28.71800041	27.48699951
          22	1	8	1	0.0	0.46200001	32.23600006	24.77700043
          23	1	8	3	0.0	1.00199997	34.5320015	24.82600021
          24	1	8	4	0.0	-0.39300001	31.96899986	23.54999924
          25	1	9	1	0.0	-0.98699999	35.1590004	26.81699944
          26	1	9	3	0.0	0.61299998	36.7879982	27.77599907
          27	1	9	4	0.0	-2.21700001	34.93000031	27.6609993
          28	1	10	1	0.0	1.94799995	34.83200073	29.15399933
          29	1	10	3	0.0	3.74600005	36.31299973	28.68400002
          30	1	10	4	0.0	2.40199995	33.60499954	29.9260006
          31	1	11	1	0.0	4.375	35.0890007	26.20999908
          32	1	11	3	0.0	5.1079998	37.28499985	25.63500023
          33	1	11	4	0.0	4.49900007	34.02000046	25.12299919
          34	1	12	1	0.0	2.48200011	38.10599899	24.74399948
          35	1	12	3	0.0	3.34100008	40.2480011	25.37599945
          36	1	12	4	0.0	1.00199997	38.1230011	24.37800026
          37	1	13	1	0.0	2.61999989	40.00299835	28.04400063
          38	1	13	3	0.0	4.28100014	41.59600067	28.54199982
          39	1	13	4	0.0	2.0539999	39.56499863	29.40299988
          40	1	14	1	0.0	6.4289999	39.91600037	27.97200012
          41	1	14	3	0.0	7.57999992	41.9469986	27.29000092
          42	1	14	4	0.0	7.29199982	38.66899872	27.68899918
          43	1	15	1	0.0	6.32600021	42.02000046	24.80599976
          44	1	15	3	0.0	6.05499983	44.38999939	24.6970005
          45	1	15	4	0.0	6.01800013	41.44100189	23.42000008
          46	1	16	1	0.0	3.3039999	44.24499893	25.57299995
          47	1	16	3	0.0	2.88899994	44.74300003	27.82299995
          48	1	16	4	0.0	1.89199996	43.68799973	25.4829998
          49	1	17	1	0.0	5.29300022	46.40000153	28.08200073
          50	1	17	3	0.0	4.31500006	47.31100082	30.05999947
          51	1	17	4	0.0	6.50299978	47.29199982	27.78300095
          52	1	18	1	0.0	2.46700001	48.81100082	28.77599907
          53	1	18	3	0.0	0.189	48.82600021	29.39599991
          54	1	18	4	0.0	2.54900002	50.21099854	28.15099907
          55	1	19	1	0.0	-0.417	46.3409996	28.5890007
          56	1	19	3	0.0	-2.7249999	46.7820015	28.40299988
          57	1	19	5	0.0	-0.12965026	45.44819085	27.36755784
          58	1	20	1	0.0	-2.61599994	48.07899857	25.9659996
          59	1	20	3	0.0	-4.21299982	47.33300018	24.35099983
          60	1	20	4	0.0	-2.21300006	49.4070015	25.29899979
          61	1	21	1	0.0	-3.18499994	44.8219986	24.04700089
          62	1	21	3	0.0	-3.03999996	44.05099869	21.78000069
          63	1	21	5	0.0	-2.14554712	43.81649719	24.57625013
          64	1	22	1	0.0	-0.74199998	45.56999969	21.22500038
          65	1	22	3	0.0	1.23000002	46.25899887	22.47200012
          66	1	22	4	0.0	-1.25	46.70199966	20.25200081
          67	1	23	1	0.0	2.94799995	45.22600174	20.54500008
          68	1	23	3	0.0	2.96799994	46.05799866	18.28300095
          69	1	23	4	0.0	3.63100004	43.82799911	20.3560009
          70	1	24	1	0.0	4.61399984	48.23099899	18.84799957
          71	1	24	3	0.0	6.70900011	47.19400024	19.14900017
          72	1	24	4	0.0	4.39699984	49.4070015	19.9260006
          73	1	25	1	0.0	8.04199982	48.6609993	17.18600082
          74	1	25	3	0.0	10.01000023	48.2159996	18.47699928
          75	1	25	4	0.0	8.47500038	49.65399933	16.0359993
          76	1	26	1	0.0	9.39500046	50.24700165	20.38599968
          77	1	26	3	0.0	10.37100029	48.91799927	22.11599922
          78	1	26	4	0.0	8.93700027	51.52799988	21.07600021
          79	1	27	1	0.0	8.15999985	47.43399811	22.62899971
          80	1	27	3	0.0	9.81400013	45.68199921	22.87999916
          81	1	27	4	0.0	6.72300005	47.03900146	22.9470005
          82	1	28	1	0.0	9.5710001	44.77600098	20.28199959
          83	1	28	3	0.0	11.8210001	44.22600174	20.7670002
          84	1	28	4	0.0	9.11999989	44.56100082	18.82099915
          85	1	29	1	0.0	12.77000046	46.88299942	20.36599922
          86	1	29	3	0.0	14.48499966	46.15000153	21.90399933
          87	1	29	5	0.0	13.31868467	45.5174469	19.9123342
          88	1	30	1	0.0	13.15299988	46.79700089	24.16900063
          89	1	30	3	0.0	14.26900005	44.94300079	25.12000084
          90	1	30	4	0.0	12.51000023	47.72600174	25.27199936
          91	1	31	1	0.0	12.55700016	43.04999924	24.18400002
          92	1	31	3	0.0	14.64400005	41.85100174	24.24099922
          93	1	31	4	0.0	11.35599995	42.18299866	23.82600021
          94	1	32	1	0.0	15.29100037	42.40299988	21.57099915
          95	1	32	3	0.0	17.50900078	42.05799866	22.38199997
          96	1	32	4	0.0	15.27099991	42.78300095	20.09499931
          97	1	33	1	0.0	17.7840004	44.7480011	23.24799919
          98	1	33	3	0.0	19.30999947	44.06200027	24.97599983
          99	1	33	4	0.0	17.56999969	46.24399948	23.41799927
         100	1	34	1	0.0	17.35099983	42.85100174	26.53100014
         101	1	34	3	0.0	18.4829998	40.81399918	27.14299965
         102	1	34	4	0.0	16.10899925	42.73400116	27.37999916
         103	1	35	1	0.0	18.4260006	39.81999969	24.49500084
         104	1	35	3	0.0	20.40999985	38.94800186	23.53000069
         105	1	35	4	0.0	17.45599937	39.20199966	23.48699951
         106	1	36	1	0.0	21.77400017	41.36600113	23.42499924
         107	1	36	3	0.0	22.81599998	41.59400177	21.21299934
         108	1	36	5	0.0	21.66388831	42.87522239	23.71087782
         109	1	37	1	0.0	20.44199944	42.34500122	19.99799919
         110	1	37	3	0.0	18.89599991	44.0340004	20.57799911
         111	1	37	4	0.0	19.40299988	41.37400055	19.49500084
         112	1	38	1	0.0	20.1420002	46.02600098	19.05200005
         113	1	38	3	0.0	20.5720005	46.81100082	16.76499939
         114	1	38	4	0.0	21.13800049	46.95500183	19.72200012
         115	1	39	1	0.0	18.06900024	46.00899887	15.85900021
         116	1	39	3	0.0	17.65699959	48.31299973	16.48600006
         117	1	39	4	0.0	16.77799988	45.19300079	15.80700016
         118	1	40	1	0.0	17.54100037	49.17300034	13.85299969
         119	1	40	3	0.0	15.33399963	48.31700134	13.64400005
         120	1	40	4	0.0	18.32099915	49.49000168	12.52600002
         121	1	41	1	0.0	14.11299992	50.80199814	13.42199993
         122	1	41	3	0.0	12.60400009	49.45100021	12.11800003
         123	1	41	4	0.0	13.77700043	52.28699875	13.41499996
         124	1	42	1	0.0	14.14099979	49.42699814	9.82800007
         125	1	42	3	0.0	12.93900013	47.33800125	9.45800018
         126	1	42	4	0.0	15.24800014	49.64099884	8.79100037
         127	1	43	1	0.0	14.65799999	45.86899948	11.02299976
         128	1	43	3	0.0	12.75300026	44.65499878	11.67800045
         129	1	43	4	0.0	15.90400028	45.29700089	11.69299984
         130	1	44	1	0.0	12.02400017	46.42900085	13.76599979
         131	1	44	3	0.0	9.84899998	45.68799973	13.08899975
         132	1	44	4	0.0	12.125	47.49200058	14.84599972
         133	1	45	1	0.0	9.52900028	47.45999908	11.04599953
         134	1	45	3	0.0	8.12100029	45.75099945	10.08500004
         135	1	45	4	0.0	9.60700035	48.76399994	10.24400043
         136	1	46	1	0.0	10.1789999	44.3409996	8.88000011
         137	1	46	3	0.0	8.79500008	42.41799927	9.29300022
         138	1	46	4	0.0	11.51799965	43.94599915	8.24800014
         139	1	47	1	0.0	9.61299992	42.10599899	11.90699959
         140	1	47	3	0.0	7.37599993	41.22600174	12.09799957
         141	1	47	4	0.0	10.40400028	42.11100006	13.20600033
         142	1	48	1	0.0	6.20599985	43.6969986	12.61400032
         143	1	48	3	0.0	4.34800005	42.82799911	11.32699966
         144	1	48	4	0.0	6.01100016	45.14500046	13.19799995
         145	1	49	1	0.0	5.29500008	43.77500153	8.93000031
         146	1	49	3	0.0	3.8499999	41.99300003	8.20100021
         147	1	49	4	0.0	6.13100004	44.29800034	7.75
         148	1	50	1	0.0	5.67999983	40.01699829	8.6789999
         149	1	50	3	0.0	3.89599991	38.44100189	8.94999981
         150	1	50	4	0.0	6.98000002	39.30599976	9.09200001
         151	1	51	1	0.0	3.1559999	39.39799881	11.50599957
         152	1	51	3	0.0	0.81	39.72200012	11.8920002
         153	1	51	4	0.0	3.70700002	39.3030014	12.95199966
         154	1	52	1	0.0	0.73799998	42.32899857	11.06799984
         155	1	52	3	0.0	-0.065	42.68500137	8.79100037
         156	1	52	4	0.0	1.33800006	43.72999954	11.20699978
         157	1	53	1	0.0	-2.11400008	40.81900024	9.06200027
         158	1	53	3	0.0	-3.36400008	41.87599945	7.3920002
         159	1	53	4	0.0	-2.829	39.55199814	9.53199959
         160	1	54	1	0.0	-4.49800014	43.83800125	9.12199974
         161	1	54	3	0.0	-4.60900021	46.15499878	8.57699966
         162	1	54	4	0.0	-5.50099993	44.03499985	10.26900005
         163	1	55	1	0.0	-1.73300004	46.34199905	8.40499973
         164	1	55	3	0.0	-1.66600001	48.67699814	8.61400032
         165	1	55	5	0.0	-0.69951898	45.87906682	9.44865229
         166	1	56	1	0.0	-2.60800004	48.64500046	11.29199982
         167	1	56	3	0.0	-1.38300002	50.11800003	12.68799973
         168	1	56	4	0.0	-3.77200007	48.46699905	12.26000023
         169	1	57	1	0.0	1.05299997	48.79999924	12.33699989
         170	1	57	3	0.0	2.60400009	48.56299973	14.08899975
         171	1	57	5	0.0	1.72851389	47.61043003	11.62974743
         172	1	58	1	0.0	0.96399999	46.89300156	15.61800003
         173	1	58	3	0.0	-0.391	45.09899902	14.72399998
         174	1	58	4	0.0	0.25600001	47.65499878	16.80699921
         175	1	59	1	0.0	0.51300001	43.33100128	16.62100029
         176	1	59	3	0.0	0.015	43.64199829	18.95499992
         177	1	59	4	0.0	1.65199995	42.31800079	16.35199928
         178	1	60	1	0.0	-2.51699996	42.30899811	18.6609993
         179	1	60	3	0.0	-1.551	40.12599945	18.43700027
         180	1	60	4	0.0	-3.9289999	42.65100098	18.25600052
         181	1	61	1	0.0	-3.02099991	38.98400116	20.51300049
         182	1	61	3	0.0	-2.55200005	36.96099854	19.25600052
         183	1	61	4	0.0	-3.86199999	38.79299927	21.78700066
         184	1	62	1	0.0	-4.81500006	37.10599899	17.70800018
         185	1	62	3	0.0	-3.42700005	35.82500076	16.23500061
         186	1	62	4	0.0	-6.12099981	37.64799881	17.17300034
         187	1	63	1	0.0	-1.98099995	38.06499863	15.27700043
         188	1	63	3	0.0	-0.126	36.5320015	15.10999966
         189	1	63	4	0.0	-1.61199999	39.48099899	14.83899975
         190	1	64	1	0.0	0.74400002	36.99000168	17.75799942
         191	1	64	3	0.0	1.51999998	34.72000122	17.63599968
         192	1	64	4	0.0	0.93000001	37.56299973	19.15399933
         193	1	65	1	0.0	-1.09899998	33.70600128	18.42000008
         194	1	65	3	0.0	-0.17	31.89699936	17.17300034
         195	1	65	4	0.0	-2.53299999	33.80400085	18.91500092
         196	1	66	1	0.0	-1.33500004	32.72299957	14.74100018
         197	1	66	3	0.0	0.46399999	31.52700043	13.72099972
         198	1	66	4	0.0	-2.16499996	33.36399841	13.56200027
         199	1	67	1	0.0	2.33899999	33.52399826	14.10200024
         200	1	67	3	0.0	3.96499991	31.78800011	14.5170002
         201	1	67	4	0.0	2.99499989	34.89699936	14.08399963
         202	1	68	1	0.0	3.44499993	31.85000038	17.33200073
         203	1	68	3	0.0	4.18200016	29.5529995	17.20000076
         204	1	68	4	0.0	2.86599994	32.22600174	18.69400024
         205	1	69	1	0.0	1.61300004	28.70100021	16.33399963
         206	1	69	3	0.0	3.21399999	27.21500015	15.3210001
         207	1	69	4	0.0	0.122	28.6609993	16.02799988
         208	1	70	1	0.0	3.03699994	28.5170002	12.81499958
         209	1	70	3	0.0	5.17700005	27.47900009	12.52600002
         210	1	70	4	0.0	2.75500011	29.50399971	11.68000031
         211	1	71	1	0.0	6.45900011	29.18099976	14.30599976
         212	1	71	3	0.0	7.796	27.25699997	14.81400013
         213	1	71	4	0.0	6.95300007	30.34499931	15.15200043
         214	1	72	1	0.0	6.0250001	26.31500053	16.79199982
         215	1	72	3	0.0	7.22599983	24.42900085	15.91399956
         216	1	72	4	0.0	4.87900019	26.09900093	17.75799942
         217	1	73	1	0.0	5.10200024	23.7670002	14.13399982
         218	1	73	3	0.0	6.94199991	22.45000076	13.25599957
         219	1	73	4	0.0	4.06500006	24.00699997	13.03899956
         220	1	74	1	0.0	8.2489996	24.75900078	12.23499966
         221	1	74	3	0.0	10.38399982	23.75699997	12.57400036
         222	1	74	4	0.0	8.38099957	26.10000038	11.51299953
         223	1	75	1	0.0	10.55099964	24.55500031	15.26399994
         224	1	75	3	0.0	11.68200016	22.52300072	15.88899994
         225	1	75	4	0.0	10.48799992	25.40600014	16.58799934
         226	1	76	1	0.0	9.28100014	20.98999977	15.70499992
         227	1	76	3	0.0	10.44099998	19.12299919	14.70199966
         228	1	76	4	0.0	7.83599997	20.64800072	16.04599953
         229	1	77	1	0.0	10.16699982	20.16399956	12.09300041
         230	1	77	3	0.0	12.31499958	18.99600029	12.08100033
         231	1	77	4	0.0	9.68200016	20.96100044	10.90400028
         232	1	78	1	0.0	13.73099995	21.40699959	12.35000038
         233	1	78	3	0.0	15.5010004	19.92099953	12.98700047
         234	1	78	4	0.0	14.04399967	22.8409996	12.81999969
         235	1	79	1	0.0	14.52600002	19.52499962	15.57499981
         236	1	79	3	0.0	15.18700027	17.24500084	15.7869997
         237	1	79	4	0.0	14.06799984	19.88800049	16.98399925
         238	1	80	1	0.0	13.18999958	16.27700043	14.09399986
         239	1	80	3	0.0	14.92300034	14.82499981	13.2329998
         240	1	80	4	0.0	11.84000015	15.97799969	13.47500038
         241	1	81	1	0.0	15.49699974	16.55699921	11.05500031
         242	1	81	3	0.0	17.79299927	15.87899971	11.26200008
         243	1	81	4	0.0	15.31400013	17.54199982	9.8579998
         244	1	82	1	0.0	18.38400078	17.6989994	13.28999996
         245	1	82	3	0.0	19.84000015	16.03100014	14.27400017
         246	1	82	4	0.0	18.43400002	18.90600014	14.22099972
         247	1	83	1	0.0	17.7689991	14.61800003	15.45100021
         248	1	83	3	0.0	19.29700089	12.84000015	14.90100002
         249	1	83	4	0.0	16.46299934	14.04800034	15.99600029
         250	1	84	1	0.0	17.94000053	12.26599979	12.49199963
         251	1	84	3	0.0	19.91300011	11.52600002	11.45600033
         252	1	84	4	0.0	16.85899925	12.10599995	11.43900013
         253	1	85	1	0.0	21.12800026	14.04100037	11.34899998
         254	1	85	3	0.0	23.22500038	12.94099998	11.88899994
         255	1	85	4	0.0	21.34900093	15.53299999	11.06299973
         256	1	86	1	0.0	22.79700089	13.18299961	14.65400028
         257	1	86	3	0.0	24.06699944	11.22999954	14.93599987
         258	1	86	4	0.0	22.2840004	13.64999962	16.01300049
         259	1	87	1	0.0	21.92300034	9.51099968	14.23099995
         260	1	87	3	0.0	23.49300003	8.00699997	13.24800014
         261	1	87	4	0.0	20.54000092	8.8760004	14.35599995
         262	1	88	1	0.0	23.5189991	9.4090004	10.7670002
         263	1	88	3	0.0	25.88800049	8.97999954	10.59300041
         264	1	88	4	0.0	23.0529995	10.08899975	9.47999954
         265	1	89	1	0.0	26.59700012	11.38099957	11.81000042
         266	1	89	3	0.0	27.33499908	11.27499962	14.1239996
         267	1	89	4	0.0	26.60700035	12.91100025	11.85700035
         268	1	90	1	0.0	27.96899986	8.52299976	13.90299988
         269	1	90	3	0.0	29.28000069	8.74499989	15.85900021
         270	1	90	4	0.0	28.21100044	7.12699986	13.3380003
         271	1	91	1	0.0	31.14500046	10.44299984	14.84399986
         272	1	91	3	0.0	32.05699921	12.52999973	15.5010004
         273	1	91	4	0.0	32.48099899	10.16800022	14.1789999
         274	1	92	1	0.0	29.54299927	13.86900043	15.25399971
         275	1	92	3	0.0	31.1079998	15.64000034	15.64999962
         276	1	92	5	0.0	28.92779117	13.98962193	13.8473834
         277	1	93	1	0.0	32.20100021	15.54199982	13.07600021
         278	1	93	3	0.0	32.14099884	17.63699913	11.87199974
         279	1	93	4	0.0	33.30099869	14.76500034	12.38199997
         280	1	94	1	0.0	29.34499931	17.44199944	11.38899994
         281	1	94	3	0.0	28.47299957	17.79999924	9.1590004
         282	1	94	5	0.0	28.10606838	16.64945974	11.84565186
         283	1	95	1	0.0	29.2310009	15.40999985	8.19299984
         284	1	95	3	0.0	29.7329998	13.16499996	8.78600025
         285	1	95	4	0.0	30.39699936	15.73499966	7.27199984
         286	1	96	1	0.0	27.81500053	12.15699959	6.98099995
         287	1	96	3	0.0	28.56100082	12.05900002	4.67199993
         288	1	96	4	0.0	26.31299973	12.02000046	6.67999983
         289	1	97	1	0.0	30.36700058	9.98099995	5.17199993
         290	1	97	3	0.0	28.45400047	8.42500019	4.93300009
         291	1	97	4	0.0	31.65600014	9.51099968	5.82399988
         292	1	98	1	0.0	29.71800041	7.09299994	2.81699991
         293	1	98	3	0.0	28.53300095	5.26399994	3.78800011
         294	1	98	4	0.0	30.69499969	6.74499989	1.69000006
         295	1	99	1	0.0	30.72800064	4.5999999	5.51800013
         296	1	99	3	0.0	28.98500061	3.727	6.97399998
         297	1	99	4	0.0	32.11399841	4.59800005	6.14699984
         298	1	100	1	0.0	28.32099915	6.20300007	8.01399994
         299	1	100	3	0.0	26.14599991	5.19000006	8.01900005
         300	1	100	4	0.0	28.44799995	7.62400007	8.52700043
         301	1	101	1	0.0	25.4260006	6.26399994	5.55000019
         302	1	101	3	0.0	24.10899925	4.24599981	5.52299976
         303	1	101	4	0.0	25.39599991	7.21000004	4.30600023
         304	1	102	1	0.0	26.13599968	2.59800005	4.60200024
         305	1	102	3	0.0	25.02400017	0.76999998	5.73899984
         306	1	102	4	0.0	27.40699959	2.07399988	3.90300012
         307	1	103	1	0.0	26.11199951	1.398	8.23099995
         308	1	103	3	0.0	23.92300034	0.708	8.89799976
         309	1	103	4	0.0	27.12199974	1.78100002	9.32600021
         310	1	104	1	0.0	22.76499939	3.08599997	9.09700012
         311	1	104	3	0.0	20.71800041	1.898	8.47500038
         312	1	104	4	0.0	22.44199944	4.56899977	9.38799953
         313	1	105	1	0.0	21.27300072	1.76100004	5.83400011
         314	1	105	3	0.0	20.04999924	-0.359	5.88600016
         315	1	105	4	0.0	21.9090004	2.14400005	4.50500011
         316	1	106	1	0.0	22.12100029	-1.82599998	6.81899977
         317	1	106	3	0.0	20.34600067	-2.9519999	7.95200014
         318	1	106	4	0.0	23.51000023	-2.53999996	6.92199993
         319	1	107	1	0.0	20.36800003	-1.12100005	10.1420002
         320	1	107	3	0.0	18.00499916	-1.29400003	10.50500011
         321	1	107	4	0.0	20.87700081	-0.15800001	11.21000004
         322	1	108	1	0.0	17.35300064	-0.012	8.07400036
         323	1	108	3	0.0	15.6619997	-1.11000001	6.75699997
         324	1	108	4	0.0	17.4090004	1.36099994	7.3670001
         325	1	109	1	0.0	17.38199997	-3.34500003	6.2420001
         326	1	109	3	0.0	17.40999985	-4.21299982	4.07399988
         327	1	109	5	0.0	18.77115113	-3.88793027	6.62551779
         328	1	110	1	0.0	19.05500031	-2.09599996	3.0309999
         329	1	110	3	0.0	21.31800079	-1.39400005	3.46700001
         330	1	110	4	0.0	18.74900055	-0.70599997	2.48600006
         331	1	111	1	0.0	22.39599991	-3.71300006	2.2249999
         332	1	111	3	0.0	22.49900055	-3.78900003	-0.177
         333	1	111	4	0.0	22.58799934	-5.21500015	2.34500003
         334	1	112	1	0.0	23.95000076	-1.33200002	-0.301
         335	1	112	3	0.0	26.20999908	-1.76499999	0.45500001
         336	1	112	4	0.0	23.63100052	0.14300001	0.022
         337	1	113	1	0.0	27.29599953	-1.64600003	-2.06800008
         338	1	113	3	0.0	27.06500053	0.70899999	-1.75999999
         339	1	113	4	0.0	27.50699997	-2.16000009	-3.54399991
         340	1	114	1	0.0	29.8390007	1.16799998	-1.81200004
         341	1	114	3	0.0	29.24900055	3.26300001	-2.84200001
         342	1	114	4	0.0	31.34799957	1.0	-1.69700003
         343	1	115	1	0.0	28.98200035	2.22000003	-5.39099979
         344	1	115	3	0.0	27.37800026	3.96600008	-5.625
         345	1	115	4	0.0	29.07999992	1.38199997	-6.65299988
         346	1	116	1	0.0	25.27799988	2.50200009	-4.48199987
         347	1	116	3	0.0	24.53100014	4.6170001	-3.68400002
         348	1	116	4	0.0	24.27499962	1.43799996	-4.10200024
         349	1	117	1	0.0	26.11300087	4.61899996	-1.37899995
         350	1	117	3	0.0	26.31699944	7.02299976	-1.68200004
         351	1	117	4	0.0	26.81200027	4.15899992	-0.092
         352	1	118	1	0.0	28.51799965	6.83300018	-3.37199998
         353	1	118	3	0.0	27.64900017	8.85499954	-4.2579999
         354	1	118	4	0.0	29.77499962	6.375	-4.10400009
         355	1	119	1	0.0	25.68899918	7.58199978	-5.85599995
         356	1	119	3	0.0	24.23600006	9.46000004	-5.45800018
         357	1	119	4	0.0	24.93000031	6.53000021	-6.61999989
         358	1	120	1	0.0	23.38299942	8.52900028	-2.97199988
         359	1	120	3	0.0	23.29899979	10.83899975	-2.37700009
         360	1	120	4	0.0	22.93799973	7.65799999	-1.80400002
         361	1	121	1	0.0	26.01600075	10.92300034	-1.55799997
         362	1	121	3	0.0	25.80599976	13.16100025	-2.39899993
         363	1	121	4	0.0	27.4279995	10.56700039	-1.00300002
         364	1	122	1	0.0	26.75499916	12.44099998	-4.95800018
         365	1	122	3	0.0	25.67399979	14.47299957	-5.5
         366	1	122	4	0.0	27.17700005	11.67199993	-6.2249999
         367	1	123	1	0.0	23.12199974	13.31200027	-5.51800013
         368	1	123	3	0.0	22.19000053	15.47799969	-5.01300001
         369	1	123	4	0.0	22.01300049	12.27400017	-5.38600016
         370	1	124	1	0.0	23.04999924	15.48600006	-2.37899995
         371	1	124	3	0.0	24.02499962	17.4090004	-1.41100001
         372	1	124	4	0.0	22.57999992	14.78999996	-1.09300005
         373	1	125	1	0.0	26.66900063	16.70499992	-2.3269999
         374	1	125	3	0.0	27.3409996	17.83399963	-4.29799986
         375	1	125	4	0.0	27.81200027	15.71399975	-2.60100007
         376	1	126	1	0.0	26.49699974	20.40399933	-3.30500007
         377	1	126	3	0.0	28.12700081	21.8010006	-4.31599998
         378	1	126	4	0.0	25.45000076	21.40600014	-2.69499993
         379	1	127	1	0.0	29.97699928	21.52499962	-2.19000006
         380	1	127	3	0.0	32.27099991	20.7840004	-2.4289999
         381	1	127	4	0.0	30.18000031	22.10300064	-0.78899997
         382	1	128	1	0.0	31.47100067	18.34900093	-3.69300008
         383	1	128	3	0.0	33.82099915	18.09199905	-3.34500003
         384	1	128	5	0.0	30.63888975	17.33853077	-2.88174089
         385	1	129	1	0.0	33.54800034	17.36199951	-0.64499998
         386	1	129	3	0.0	34.27500153	15.31499958	0.37599999
         387	1	129	4	0.0	33.59700012	18.22200012	0.60500002
         388	1	130	1	0.0	32.20299911	13.79899979	-0.84600002
         389	1	130	3	0.0	31.26000023	12.17599964	0.61699998
         390	1	130	5	0.0	30.88324498	13.99206669	-1.61578843
         391	1	131	1	0.0	30.18499947	14.09200001	2.38400006
         392	1	131	3	0.0	28.81599998	15.81200027	1.53600001
         393	1	131	4	0.0	30.97999954	14.51900005	3.62400007
         394	1	132	1	0.0	26.76799965	15.44499969	3.30800009
         395	1	132	3	0.0	26.89699936	15.63399982	5.704
         396	1	132	4	0.0	25.47900009	14.69299984	2.98900008
         397	1	133	1	0.0	26.63199997	18.42000008	5.63700008
         398	1	133	3	0.0	24.33099937	18.01600075	5.22700024
         399	1	133	4	0.0	27.4090004	19.6989994	5.41099977
         400	1	134	1	0.0	23.45400047	19.44799995	7.46899986
         401	1	134	3	0.0	21.45599937	19.75399971	6.15500021
         402	1	134	4	0.0	23.38999939	20.11700058	8.87300014
         403	1	135	1	0.0	22.46299934	21.98399925	4.85300016
         404	1	135	3	0.0	20.86300087	21.06100082	3.31500006
         405	1	135	4	0.0	23.28100014	23.14500046	4.27600002
         406	1	136	1	0.0	22.70800018	19.32900047	2.11100006
         407	1	136	3	0.0	20.88599968	17.78300095	1.722
         408	1	136	4	0.0	24.00600052	18.67200089	1.64999998
         409	1	137	1	0.0	20.84499931	16.88999939	4.38000011
         410	1	137	3	0.0	18.4810009	16.67399979	4.05700016
         411	1	137	4	0.0	21.30900002	16.40800095	5.75199986
         412	1	138	1	0.0	17.87400055	19.22299957	4.87099981
         413	1	138	3	0.0	16.14900017	19.0340004	3.16599989
         414	1	138	4	0.0	17.84399986	20.50600052	5.70699978
         415	1	139	1	0.0	17.78800011	19.80900002	1.11500001
         416	1	139	3	0.0	16.17900085	18.4489994	-0.027
         417	1	139	4	0.0	18.88599968	20.3010006	0.17900001
         418	1	140	1	0.0	17.50699997	16.0359993	0.59500003
         419	1	140	3	0.0	15.40299988	14.875	0.82599998
         420	1	140	4	0.0	18.6970005	15.10099983	0.71700001
         421	1	141	1	0.0	15.08100033	15.70499992	3.51900005
         422	1	141	3	0.0	12.81599998	15.64400005	2.68000007
         423	1	141	4	0.0	15.45199966	16.11499977	4.94299984
         424	1	142	1	0.0	12.55799961	18.45100021	2.79699993
         425	1	142	3	0.0	11.07299995	17.85400009	1.00300002
         426	1	142	4	0.0	12.78100014	19.97200012	3.16300011
         427	1	143	1	0.0	12.99600029	18.45999908	-0.991
         428	1	143	3	0.0	12.23900032	16.24900055	-1.625
         429	1	143	4	0.0	13.9659996	19.38899994	-1.70500004
         430	2	144	1	0.0	12.48099995	69.9509964	80.63899994
         431	2	144	3	0.0	14.48600006	71.18199921	81.06500244
         432	2	144	4	0.0	12.05000019	70.70300293	79.36699677
         433	2	145	1	0.0	16.13599968	68.96399689	80.80999756
         434	2	145	3	0.0	16.54000092	67.42500305	79.01300049
         435	2	145	4	0.0	16.61800003	67.96099854	81.84300232
         436	2	146	1	0.0	17.61800003	69.39399719	77.34899902
         437	2	146	3	0.0	18.59300041	67.3789978	76.51599884
         438	2	146	4	0.0	18.0909996	70.71800232	76.79699707
         439	2	147	1	0.0	20.9470005	67.60199738	77.95999908
         440	2	147	3	0.0	21.29299927	65.20800018	77.84300232
         441	2	147	4	0.0	22.04100037	68.14499664	78.87400055
         442	2	148	1	0.0	19.19300079	64.64399719	79.60800171
         443	2	148	3	0.0	18.72400093	62.75400162	78.22899628
         444	2	148	4	0.0	18.27300072	64.81199646	80.80400085
         445	2	149	1	0.0	16.63100052	64.05799866	76.84400177
         446	2	149	3	0.0	17.13899994	62.75	74.90200043
         447	2	149	4	0.0	15.56599998	65.07499695	76.45600128
         448	2	150	1	0.0	19.2689991	64.35099792	74.1190033
         449	2	150	3	0.0	20.39900017	62.36500168	73.41100311
         450	2	150	4	0.0	20.04400063	65.64600372	73.8219986
         451	2	151	1	0.0	21.86300087	62.08800125	75.76300049
         452	2	151	3	0.0	21.7689991	59.7120018	75.59300232
         453	2	151	4	0.0	22.7140007	62.44400024	76.96499634
         454	2	152	1	0.0	19.20299911	59.50899887	76.60399628
         455	2	152	3	0.0	18.99200058	57.7159996	75.02100372
         456	2	152	5	0.0	20.5147156	58.70235498	76.6220382
         457	2	153	1	0.0	18.10000038	59.32600021	72.95999908
         458	2	153	3	0.0	19.33699989	57.92300034	71.47399902
         459	2	153	4	0.0	17.41699982	60.42900085	72.21299744
         460	2	154	1	0.0	21.75499916	59.17699814	71.83599854
         461	2	154	3	0.0	22.77799988	57.00699997	71.63700104
         462	2	154	4	0.0	22.84799957	60.21099854	72.10600281
         463	2	155	1	0.0	22.38599968	56.33399963	74.33100128
         464	2	155	3	0.0	22.05800056	54.11500168	73.49900055
         465	2	155	4	0.0	22.11800003	56.43000031	75.84300232
         466	2	156	1	0.0	19.32500076	54.50099945	73.03600311
         467	2	156	3	0.0	19.7840004	52.89899826	71.31500244
         468	2	156	4	0.0	17.9109993	55.07799911	72.95600128
         469	2	157	1	0.0	20.47100067	54.69900131	69.40799713
         470	2	157	3	0.0	22.0890007	53.10900116	68.60700226
         471	2	157	4	0.0	20.51099968	55.92499924	68.44300079
         472	2	158	1	0.0	24.00699997	53.82099915	70.51799774
         473	2	158	3	0.0	24.80200005	51.54899979	70.58200073
         474	2	158	4	0.0	24.77499962	54.60699844	71.55999756
         475	2	159	1	0.0	22.68600082	50.66500092	72.15200043
         476	2	159	3	0.0	22.37899971	48.84400177	70.6780014
         477	2	159	4	0.0	21.84499931	50.63899994	73.43800354
         478	2	160	1	0.0	20.24500084	49.9090004	69.33499908
         479	2	160	3	0.0	20.95499992	48.53699875	67.48500061
         480	2	160	4	0.0	19.11100006	50.79199982	68.85399628
         481	2	161	1	0.0	23.14500046	50.08100128	66.88600159
         482	2	161	3	0.0	24.13599968	47.9280014	66.54699707
         483	2	161	4	0.0	23.91600037	51.36899948	66.46900177

Bond Coeffs

           1	200.0	3.77
           2	200.0	2.41
           3	200.0	2.50
           4	200.0	1.54
           5	200.0	1.54
Bonds

           1	2	1	2
           2	4	1	3
           3	1	1	4
           4	3	2	4
           5	2	4	5
           6	4	4	6
           7	1	4	7
           8	3	5	7
           9	2	7	8
          10	4	7	9
          11	1	7	10
          12	3	8	10
          13	2	10	11
          14	4	10	12
          15	1	10	13
          16	3	11	13
          17	2	13	14
          18	4	13	15
          19	1	13	16
          20	3	14	16
          21	2	16	17
          22	4	16	18
          23	1	16	19
          24	3	17	19
          25	2	19	20
          26	4	19	21
          27	1	19	22
          28	3	20	22
          29	2	22	23
          30	4	22	24
          31	1	22	25
          32	3	23	25
          33	2	25	26
          34	4	25	27
          35	1	25	28
          36	3	26	28
          37	2	28	29
          38	4	28	30
          39	1	28	31
          40	3	29	31
          41	2	31	32
          42	4	31	33